                               Psi4 1.2a1.dev194

  ==> Input File <==

--------------------------------------------------------------------------
molecule h2o {
0 1
O  0.0000000000  0.0000000000 -0.1247219248
H  0.0000000000 -1.4343021349  0.9864370414
H  0.0000000000  1.4343021349  0.9864370414
units bohr
}

set basis sto-3g
set scf_type pk
set reference rhf

energy('scf')

--------------------------------------------------------------------------

    Molecular point group: c2v

    Geometry (in Bohr), charge = 0, multiplicity = 1:

       Center              X                  Y                   Z               Mass
    ------------   -----------------  -----------------  -----------------  -----------------
           O         -0.000000000000     0.000000000000    -0.124355214888    15.994914619560
           H          0.000000000000    -1.434302134900     0.986803751312     1.007825032070
           H         -0.000000000000     1.434302134900     0.986803751312     1.007825032070

  Charge       = 0
  Multiplicity = 1
  Basis Set: STO-3G
    Blend: STO-3G

    Orbital Energies (a.u.)
    -----------------------

    Doubly Occupied:

       1A1   -20.242155     2A1    -1.266975     1B2    -0.616312
       3A1    -0.452762     1B1    -0.391089

  @RHF Final Energy:   -74.96334379508691

   => Energetics <=

    Nuclear Repulsion Energy =              9.1671453128090299
    One-Electron Energy =                -122.3223903528715795
    Two-Electron Energy =                  38.1919012449756394
    PCM Polarization Energy =               0.0000000000000000
    Total Energy =                        -74.9633437950869137
*** Psi4 exiting successfully. Buy a developer a beer!
